/*--------------------------------*- C++ -*----------------------------------*\
  =========                 |
  \\      /  F ield         | OpenFOAM: The Open Source CFD Toolbox
   \\    /   O peration     | Website:  https://openfoam.org
    \\  /    A nd           | Version:  8
     \\/     M anipulation  |
\*---------------------------------------------------------------------------*/
FoamFile
{
    version     2.0;
    format      ascii;
    class       volScalarField;
    location    "0";
    object      yPlus;
}
// * * * * * * * * * * * * * * * * * * * * * * * * * * * * * * * * * * * * * //

dimensions      [0 0 0 0 0 0 0];

internalField   uniform 0;

boundaryField
{
    frontandback
    {
        type            empty;
    }
    inlet
    {
        type            calculated;
        value           uniform 0;
    }
    airfoil
    {
        type            calculated;
        value           nonuniform List<scalar> 
512
(
1.59437
1.59452
1.59377
1.59305
1.59235
1.59168
1.59103
1.59041
1.58981
1.58923
1.58867
1.58814
1.58762
1.58712
1.58664
1.58617
1.58573
1.58531
1.5849
1.58449
1.58411
1.58374
1.58338
1.58304
1.58271
1.58239
1.58209
1.5818
1.58152
1.58124
1.58097
1.58072
1.58047
1.58023
1.58001
1.57979
1.57959
1.57938
1.57918
1.57899
1.57882
1.57865
1.57849
1.57832
1.57817
1.57803
1.57789
1.57774
1.5776
1.57748
1.57736
1.57724
1.57713
1.57702
1.57692
1.57683
1.57673
1.57663
1.57654
1.57646
1.57638
1.5763
1.57623
1.57615
1.57609
1.57602
1.57595
1.5759
1.57585
1.5758
1.57575
1.57569
1.57564
1.5756
1.57556
1.57552
1.57548
1.57545
1.57542
1.57539
1.57535
1.57533
1.5753
1.57528
1.57525
1.57524
1.57522
1.5752
1.57519
1.57517
1.57516
1.57515
1.57515
1.57514
1.57514
1.57514
1.57514
1.57513
1.57513
1.57514
1.57515
1.57516
1.57517
1.57518
1.57519
1.5752
1.57521
1.57523
1.57525
1.57527
1.57529
1.57532
1.57535
1.57538
1.5754
1.57544
1.57547
1.57551
1.57555
1.57559
1.57563
1.57568
1.57573
1.57578
1.57583
1.57588
1.57594
1.57601
1.57607
1.57613
1.57621
1.57628
1.57635
1.57644
1.57652
1.5766
1.57669
1.57679
1.57689
1.577
1.5771
1.57721
1.57732
1.57743
1.57757
1.5777
1.57783
1.57798
1.57812
1.57828
1.57844
1.5786
1.57877
1.57894
1.57913
1.57933
1.57952
1.57973
1.57995
1.58017
1.5804
1.58065
1.5809
1.58115
1.58142
1.58171
1.582
1.5823
1.58261
1.58294
1.58328
1.58363
1.58399
1.58437
1.58477
1.58518
1.58561
1.58605
1.5865
1.58697
1.58747
1.58798
1.58851
1.58906
1.58963
1.59022
1.59084
1.59148
1.59214
1.59283
1.59355
1.59429
1.59506
1.59586
1.59668
1.59755
1.59844
1.59936
1.60032
1.60132
1.60235
1.60343
1.60454
1.6057
1.6069
1.60814
1.60943
1.61077
1.61216
1.6136
1.61509
1.61664
1.61825
1.61992
1.62165
1.62345
1.62531
1.62724
1.62924
1.63131
1.63347
1.6357
1.63801
1.64041
1.64289
1.64547
1.64814
1.65091
1.65378
1.65675
1.65983
1.66303
1.66634
1.66976
1.67332
1.67699
1.6808
1.68475
1.68884
1.69307
1.69746
1.702
1.70669
1.71156
1.7166
1.72181
1.7272
1.73279
1.73857
1.74454
1.75073
1.75713
1.76374
1.77059
1.77767
1.78475
1.78475
1.77767
1.77059
1.76374
1.75713
1.75073
1.74454
1.73857
1.73279
1.7272
1.72181
1.7166
1.71156
1.70669
1.702
1.69746
1.69307
1.68884
1.68475
1.6808
1.67699
1.67332
1.66976
1.66634
1.66303
1.65983
1.65675
1.65378
1.65091
1.64814
1.64547
1.64289
1.64041
1.63801
1.6357
1.63347
1.63131
1.62924
1.62724
1.62531
1.62345
1.62165
1.61992
1.61825
1.61664
1.61509
1.6136
1.61216
1.61077
1.60943
1.60814
1.6069
1.6057
1.60454
1.60343
1.60235
1.60132
1.60032
1.59936
1.59844
1.59755
1.59668
1.59586
1.59506
1.59429
1.59355
1.59283
1.59214
1.59148
1.59084
1.59022
1.58963
1.58906
1.58851
1.58798
1.58747
1.58697
1.5865
1.58605
1.58561
1.58518
1.58477
1.58437
1.58399
1.58363
1.58328
1.58294
1.58261
1.5823
1.582
1.58171
1.58142
1.58115
1.5809
1.58065
1.5804
1.58017
1.57995
1.57973
1.57952
1.57933
1.57913
1.57894
1.57877
1.5786
1.57844
1.57828
1.57812
1.57798
1.57783
1.5777
1.57757
1.57743
1.57732
1.57721
1.5771
1.577
1.57689
1.57679
1.57669
1.5766
1.57652
1.57644
1.57635
1.57628
1.57621
1.57613
1.57607
1.57601
1.57594
1.57588
1.57583
1.57578
1.57573
1.57568
1.57563
1.57559
1.57555
1.57551
1.57547
1.57544
1.5754
1.57538
1.57535
1.57532
1.57529
1.57527
1.57525
1.57523
1.57521
1.5752
1.57519
1.57518
1.57517
1.57516
1.57515
1.57514
1.57513
1.57513
1.57514
1.57514
1.57514
1.57514
1.57515
1.57515
1.57516
1.57517
1.57519
1.5752
1.57522
1.57524
1.57525
1.57528
1.5753
1.57533
1.57535
1.57539
1.57542
1.57545
1.57548
1.57552
1.57556
1.5756
1.57564
1.57569
1.57575
1.5758
1.57585
1.5759
1.57595
1.57602
1.57609
1.57615
1.57623
1.5763
1.57638
1.57646
1.57654
1.57663
1.57673
1.57683
1.57692
1.57702
1.57713
1.57724
1.57736
1.57748
1.5776
1.57774
1.57789
1.57803
1.57817
1.57832
1.57849
1.57865
1.57882
1.57899
1.57918
1.57938
1.57959
1.57979
1.58001
1.58023
1.58047
1.58072
1.58097
1.58124
1.58152
1.5818
1.58209
1.58239
1.58271
1.58304
1.58338
1.58374
1.58411
1.58449
1.5849
1.58531
1.58573
1.58617
1.58664
1.58712
1.58762
1.58814
1.58867
1.58923
1.58981
1.59041
1.59103
1.59168
1.59235
1.59305
1.59377
1.59452
1.59437
)
;
    }
    outlet
    {
        type            calculated;
        value           uniform 0;
    }
}


// ************************************************************************* //
